<?xml version="1.0" encoding="UTF-8"?>

<!-- generated on 2023-01-03 18:50:04 by Eclipse SUMO sumo Version 1.12.0
<configuration xmlns:xsi="http://www.w3.org/2001/XMLSchema-instance" xsi:noNamespaceSchemaLocation="http://sumo.dlr.de/xsd/sumoConfiguration.xsd">

    <input>
        <net-file value="sim_xml/test4x4.net.xml"/>
        <route-files value="sim_xml/random.rou.xml"/>
    </input>

    <output>
        <emission-output value="sim_xml/emission.xml"/>
        <bt-output value="sim_xml/bt.xml"/>
    </output>

    <time>
        <begin value="0"/>
    </time>

    <report>
        <verbose value="true"/>
        <no-step-log value="true"/>
    </report>

    <communication>
        <device.btreceiver.range value="40"/>
        <device.btreceiver.offtime value="1"/>
    </communication>

    <traci_server>
        <remote-port value="59437"/>
    </traci_server>

</configuration>
-->

<emission-export xmlns:xsi="http://www.w3.org/2001/XMLSchema-instance" xsi:noNamespaceSchemaLocation="http://sumo.dlr.de/xsd/emission_file.xsd">
    <timestep time="0.00">
        <vehicle id="car0.0" eclass="HBEFA3/PC_G_EU4" CO2="2624.72" CO="164.78" HC="0.81" NOx="1.20" PMx="0.07" fuel="1.13" electricity="0.00" noise="55.94" route="!car0.0!var#1" type="car" waiting="0.00" lane="F6F5_0" pos="5.10" speed="0.00" angle="180.00" x="498.40" y="594.90"/>
        <vehicle id="car1.0" eclass="HBEFA3/PC_G_EU4" CO2="2624.72" CO="164.78" HC="0.81" NOx="1.20" PMx="0.07" fuel="1.13" electricity="0.00" noise="55.94" route="!car1.0!var#1" type="car" waiting="0.00" lane="B0B1_0" pos="5.10" speed="0.00" angle="0.00" x="101.60" y="5.10"/>
        <vehicle id="car10.0" eclass="HBEFA3/PC_G_EU4" CO2="2624.72" CO="164.78" HC="0.81" NOx="1.20" PMx="0.07" fuel="1.13" electricity="0.00" noise="55.94" route="!car10.0!var#1" type="car" waiting="0.00" lane="A5B5_0" pos="5.10" speed="0.00" angle="90.00" x="5.10" y="498.40"/>
        <vehicle id="car11.0" eclass="HBEFA3/PC_G_EU4" CO2="2624.72" CO="164.78" HC="0.81" NOx="1.20" PMx="0.07" fuel="1.13" electricity="0.00" noise="55.94" route="!car11.0!var#1" type="car" waiting="0.00" lane="E0E1_0" pos="5.10" speed="0.00" angle="0.00" x="401.60" y="5.10"/>
        <vehicle id="car14.0" eclass="HBEFA3/PC_G_EU4" CO2="2624.72" CO="164.78" HC="0.81" NOx="1.20" PMx="0.07" fuel="1.13" electricity="0.00" noise="55.94" route="!car14.0!var#1" type="car" waiting="0.00" lane="B6B5_0" pos="5.10" speed="0.00" angle="180.00" x="98.40" y="594.90"/>
        <vehicle id="car15.0" eclass="HBEFA3/PC_G_EU4" CO2="2624.72" CO="164.78" HC="0.81" NOx="1.20" PMx="0.07" fuel="1.13" electricity="0.00" noise="55.94" route="!car15.0!var#1" type="car" waiting="0.00" lane="A1B1_0" pos="5.10" speed="0.00" angle="90.00" x="5.10" y="98.40"/>
        <vehicle id="car19.0" eclass="HBEFA3/PC_G_EU4" CO2="2624.72" CO="164.78" HC="0.81" NOx="1.20" PMx="0.07" fuel="1.13" electricity="0.00" noise="55.94" route="!car19.0!var#1" type="car" waiting="0.00" lane="D0D1_0" pos="5.10" speed="0.00" angle="0.00" x="301.60" y="5.10"/>
        <vehicle id="car2.0" eclass="HBEFA3/PC_G_EU4" CO2="2624.72" CO="164.78" HC="0.81" NOx="1.20" PMx="0.07" fuel="1.13" electricity="0.00" noise="55.94" route="!car2.0!var#1" type="car" waiting="0.00" lane="A2B2_0" pos="5.10" speed="0.00" angle="90.00" x="5.10" y="198.40"/>
        <vehicle id="car20.0" eclass="HBEFA3/PC_G_EU4" CO2="2624.72" CO="164.78" HC="0.81" NOx="1.20" PMx="0.07" fuel="1.13" electricity="0.00" noise="55.94" route="!car20.0!var#1" type="car" waiting="0.00" lane="D6D5_0" pos="5.10" speed="0.00" angle="180.00" x="298.40" y="594.90"/>
        <vehicle id="car24.0" eclass="HBEFA3/PC_G_EU4" CO2="2624.72" CO="164.78" HC="0.81" NOx="1.20" PMx="0.07" fuel="1.13" electricity="0.00" noise="55.94" route="!car24.0!var#1" type="car" waiting="0.00" lane="E1D1_0" pos="5.10" speed="0.00" angle="270.00" x="387.70" y="101.60"/>
        <vehicle id="car25.0" eclass="HBEFA3/PC_G_EU4" CO2="2624.72" CO="164.78" HC="0.81" NOx="1.20" PMx="0.07" fuel="1.13" electricity="0.00" noise="55.94" route="!car25.0!var#1" type="car" waiting="0.00" lane="C0C1_0" pos="5.10" speed="0.00" angle="0.00" x="201.60" y="5.10"/>
        <vehicle id="car27.0" eclass="HBEFA3/PC_G_EU4" CO2="2624.72" CO="164.78" HC="0.81" NOx="1.20" PMx="0.07" fuel="1.13" electricity="0.00" noise="55.94" route="!car27.0!var#1" type="car" waiting="0.00" lane="E3D3_0" pos="5.10" speed="0.00" angle="270.00" x="387.70" y="301.60"/>
        <vehicle id="car36.0" eclass="HBEFA3/PC_G_EU4" CO2="2624.72" CO="164.78" HC="0.81" NOx="1.20" PMx="0.07" fuel="1.13" electricity="0.00" noise="55.94" route="!car36.0!var#1" type="car" waiting="0.00" lane="A3B3_0" pos="5.10" speed="0.00" angle="90.00" x="5.10" y="298.40"/>
        <vehicle id="car39.0" eclass="HBEFA3/PC_G_EU4" CO2="2624.72" CO="164.78" HC="0.81" NOx="1.20" PMx="0.07" fuel="1.13" electricity="0.00" noise="55.94" route="!car39.0!var#1" type="car" waiting="0.00" lane="A4B4_0" pos="5.10" speed="0.00" angle="90.00" x="5.10" y="398.40"/>
        <vehicle id="car45.0" eclass="HBEFA3/PC_G_EU4" CO2="2624.72" CO="164.78" HC="0.81" NOx="1.20" PMx="0.07" fuel="1.13" electricity="0.00" noise="55.94" route="!car45.0!var#1" type="car" waiting="0.00" lane="E4D4_0" pos="5.10" speed="0.00" angle="270.00" x="387.70" y="401.60"/>
        <vehicle id="car5.0" eclass="HBEFA3/PC_G_EU4" CO2="2624.72" CO="164.78" HC="0.81" NOx="1.20" PMx="0.07" fuel="1.13" electricity="0.00" noise="55.94" route="!car5.0!var#1" type="car" waiting="0.00" lane="C6C5_0" pos="5.10" speed="0.00" angle="180.00" x="198.40" y="594.90"/>
        <vehicle id="car6.0" eclass="HBEFA3/PC_G_EU4" CO2="2624.72" CO="164.78" HC="0.81" NOx="1.20" PMx="0.07" fuel="1.13" electricity="0.00" noise="55.94" route="!car6.0!var#1" type="car" waiting="0.00" lane="E2D2_0" pos="5.10" speed="0.00" angle="270.00" x="387.70" y="201.60"/>
        <vehicle id="car67.0" eclass="HBEFA3/PC_G_EU4" CO2="2624.72" CO="164.78" HC="0.81" NOx="1.20" PMx="0.07" fuel="1.13" electricity="0.00" noise="55.94" route="!car67.0!var#1" type="car" waiting="0.00" lane="E6E5_0" pos="5.10" speed="0.00" angle="180.00" x="398.40" y="594.90"/>
        <vehicle id="car7.0" eclass="HBEFA3/PC_G_EU4" CO2="2624.72" CO="164.78" HC="0.81" NOx="1.20" PMx="0.07" fuel="1.13" electricity="0.00" noise="55.94" route="!car7.0!var#1" type="car" waiting="0.00" lane="E5D5_0" pos="5.10" speed="0.00" angle="270.00" x="387.70" y="501.60"/>
        <vehicle id="car9.0" eclass="HBEFA3/PC_G_EU4" CO2="2624.72" CO="164.78" HC="0.81" NOx="1.20" PMx="0.07" fuel="1.13" electricity="0.00" noise="55.94" route="!car9.0!var#1" type="car" waiting="0.00" lane="F0F1_0" pos="5.10" speed="0.00" angle="0.00" x="501.60" y="5.10"/>
        <vehicle id="mec0" eclass="HBEFA3/PC_G_EU4" CO2="2624.72" CO="164.78" HC="0.81" NOx="1.20" PMx="0.07" fuel="1.13" electricity="0.00" noise="55.94" route="!mec0" type="car" waiting="0.00" lane="B3B2_0" pos="85.60" speed="0.00" angle="180.00" x="98.40" y="207.20"/>
        <vehicle id="mec1" eclass="HBEFA3/PC_G_EU4" CO2="2624.72" CO="164.78" HC="0.81" NOx="1.20" PMx="0.07" fuel="1.13" electricity="0.00" noise="55.94" route="!mec1" type="car" waiting="0.00" lane="B1B0_0" pos="92.80" speed="0.00" angle="180.00" x="98.40" y="0.00"/>
        <vehicle id="mec10" eclass="HBEFA3/PC_G_EU4" CO2="2624.72" CO="164.78" HC="0.81" NOx="1.20" PMx="0.07" fuel="1.13" electricity="0.00" noise="55.94" route="!mec10" type="car" waiting="0.00" lane="E1E0_0" pos="92.80" speed="0.00" angle="180.00" x="398.40" y="0.00"/>
        <vehicle id="mec11" eclass="HBEFA3/PC_G_EU4" CO2="2624.72" CO="164.78" HC="0.81" NOx="1.20" PMx="0.07" fuel="1.13" electricity="0.00" noise="55.94" route="!mec11" type="car" waiting="0.00" lane="F1F0_0" pos="92.80" speed="0.00" angle="180.00" x="498.40" y="0.00"/>
        <vehicle id="mec13" eclass="HBEFA3/PC_G_EU4" CO2="2624.72" CO="164.78" HC="0.81" NOx="1.20" PMx="0.07" fuel="1.13" electricity="0.00" noise="55.94" route="!mec13" type="car" waiting="0.00" lane="F3F2_0" pos="85.60" speed="0.00" angle="180.00" x="498.40" y="207.20"/>
        <vehicle id="mec2" eclass="HBEFA3/PC_G_EU4" CO2="2624.72" CO="164.78" HC="0.81" NOx="1.20" PMx="0.07" fuel="1.13" electricity="0.00" noise="55.94" route="!mec2" type="car" waiting="0.00" lane="B2B1_0" pos="85.60" speed="0.00" angle="180.00" x="98.40" y="107.20"/>
        <vehicle id="mec3" eclass="HBEFA3/PC_G_EU4" CO2="2624.72" CO="164.78" HC="0.81" NOx="1.20" PMx="0.07" fuel="1.13" electricity="0.00" noise="55.94" route="!mec3" type="car" waiting="0.00" lane="C2C1_0" pos="85.60" speed="0.00" angle="180.00" x="198.40" y="107.20"/>
        <vehicle id="mec4" eclass="HBEFA3/PC_G_EU4" CO2="2624.72" CO="164.78" HC="0.81" NOx="1.20" PMx="0.07" fuel="1.13" electricity="0.00" noise="55.94" route="!mec4" type="car" waiting="0.00" lane="C1C0_0" pos="92.80" speed="0.00" angle="180.00" x="198.40" y="0.00"/>
        <vehicle id="mec5" eclass="HBEFA3/PC_G_EU4" CO2="2624.72" CO="164.78" HC="0.81" NOx="1.20" PMx="0.07" fuel="1.13" electricity="0.00" noise="55.94" route="!mec5" type="car" waiting="0.00" lane="C4C3_0" pos="85.60" speed="0.00" angle="180.00" x="198.40" y="307.20"/>
        <vehicle id="mec6" eclass="HBEFA3/PC_G_EU4" CO2="2624.72" CO="164.78" HC="0.81" NOx="1.20" PMx="0.07" fuel="1.13" electricity="0.00" noise="55.94" route="!mec6" type="car" waiting="0.00" lane="D4D3_0" pos="85.60" speed="0.00" angle="180.00" x="298.40" y="307.20"/>
        <vehicle id="mec7" eclass="HBEFA3/PC_G_EU4" CO2="2624.72" CO="164.78" HC="0.81" NOx="1.20" PMx="0.07" fuel="1.13" electricity="0.00" noise="55.94" route="!mec7" type="car" waiting="0.00" lane="D1D0_0" pos="92.80" speed="0.00" angle="180.00" x="298.40" y="0.00"/>
        <vehicle id="mec8" eclass="HBEFA3/PC_G_EU4" CO2="2624.72" CO="164.78" HC="0.81" NOx="1.20" PMx="0.07" fuel="1.13" electricity="0.00" noise="55.94" route="!mec8" type="car" waiting="0.00" lane="D2D1_0" pos="85.60" speed="0.00" angle="180.00" x="298.40" y="107.20"/>
        <vehicle id="mec9" eclass="HBEFA3/PC_G_EU4" CO2="2624.72" CO="164.78" HC="0.81" NOx="1.20" PMx="0.07" fuel="1.13" electricity="0.00" noise="55.94" route="!mec9" type="car" waiting="0.00" lane="E3E2_0" pos="85.60" speed="0.00" angle="180.00" x="398.40" y="207.20"/>
    </timestep>
    <timestep time="1.00">
        <vehicle id="car0.0" eclass="HBEFA3/PC_G_EU4" CO2="3990.91" CO="151.17" HC="0.78" NOx="1.78" PMx="0.09" fuel="1.72" electricity="0.00" noise="67.95" route="!car0.0!var#1" type="car" waiting="0.00" lane="F6F5_0" pos="7.61" speed="2.51" angle="180.00" x="498.40" y="592.39"/>
        <vehicle id="car1.0" eclass="HBEFA3/PC_G_EU4" CO2="3687.71" CO="149.07" HC="0.77" NOx="1.64" PMx="0.08" fuel="1.59" electricity="0.00" noise="66.69" route="!car1.0!var#1" type="car" waiting="0.00" lane="B0B1_0" pos="7.35" speed="2.25" angle="0.00" x="101.60" y="7.35"/>
        <vehicle id="car10.0" eclass="HBEFA3/PC_G_EU4" CO2="3532.95" CO="148.26" HC="0.76" NOx="1.58" PMx="0.08" fuel="1.52" electricity="0.00" noise="65.97" route="!car10.0!var#1" type="car" waiting="0.00" lane="A5B5_0" pos="7.20" speed="2.10" angle="90.00" x="7.20" y="498.40"/>
        <vehicle id="car11.0" eclass="HBEFA3/PC_G_EU4" CO2="4044.50" CO="151.59" HC="0.79" NOx="1.80" PMx="0.09" fuel="1.74" electricity="0.00" noise="68.16" route="!car11.0!var#1" type="car" waiting="0.00" lane="E0E1_0" pos="7.65" speed="2.55" angle="0.00" x="401.60" y="7.65"/>
        <vehicle id="car14.0" eclass="HBEFA3/PC_G_EU4" CO2="3614.89" CO="148.66" HC="0.76" NOx="1.61" PMx="0.08" fuel="1.55" electricity="0.00" noise="66.36" route="!car14.0!var#1" type="car" waiting="0.00" lane="B6B5_0" pos="7.28" speed="2.18" angle="180.00" x="98.40" y="592.72"/>
        <vehicle id="car15.0" eclass="HBEFA3/PC_G_EU4" CO2="3869.18" CO="150.26" HC="0.78" NOx="1.73" PMx="0.09" fuel="1.66" electricity="0.00" noise="67.46" route="!car15.0!var#1" type="car" waiting="0.00" lane="A1B1_0" pos="7.51" speed="2.41" angle="90.00" x="7.51" y="98.40"/>
        <vehicle id="car19.0" eclass="HBEFA3/PC_G_EU4" CO2="3909.43" CO="150.55" HC="0.78" NOx="1.74" PMx="0.09" fuel="1.68" electricity="0.00" noise="67.63" route="!car19.0!var#1" type="car" waiting="0.00" lane="D0D1_0" pos="7.54" speed="2.44" angle="0.00" x="301.60" y="7.54"/>
        <vehicle id="car2.0" eclass="HBEFA3/PC_G_EU4" CO2="4056.02" CO="151.69" HC="0.79" NOx="1.81" PMx="0.09" fuel="1.74" electricity="0.00" noise="68.21" route="!car2.0!var#1" type="car" waiting="0.00" lane="A2B2_0" pos="7.66" speed="2.56" angle="90.00" x="7.66" y="198.40"/>
        <vehicle id="car20.0" eclass="HBEFA3/PC_G_EU4" CO2="3820.87" CO="149.92" HC="0.77" NOx="1.70" PMx="0.08" fuel="1.64" electricity="0.00" noise="67.26" route="!car20.0!var#1" type="car" waiting="0.00" lane="D6D5_0" pos="7.47" speed="2.37" angle="180.00" x="298.40" y="592.53"/>
        <vehicle id="car24.0" eclass="HBEFA3/PC_G_EU4" CO2="3907.57" CO="150.54" HC="0.78" NOx="1.74" PMx="0.09" fuel="1.68" electricity="0.00" noise="67.62" route="!car24.0!var#1" type="car" waiting="0.00" lane="E1D1_0" pos="7.54" speed="2.44" angle="270.00" x="385.26" y="101.60"/>
        <vehicle id="car25.0" eclass="HBEFA3/PC_G_EU4" CO2="3929.42" CO="150.70" HC="0.78" NOx="1.75" PMx="0.09" fuel="1.69" electricity="0.00" noise="67.71" route="!car25.0!var#1" type="car" waiting="0.00" lane="C0C1_0" pos="7.56" speed="2.46" angle="0.00" x="201.60" y="7.56"/>
        <vehicle id="car27.0" eclass="HBEFA3/PC_G_EU4" CO2="3914.14" CO="150.59" HC="0.78" NOx="1.75" PMx="0.09" fuel="1.68" electricity="0.00" noise="67.65" route="!car27.0!var#1" type="car" waiting="0.00" lane="E3D3_0" pos="7.55" speed="2.45" angle="270.00" x="385.25" y="301.60"/>
        <vehicle id="car36.0" eclass="HBEFA3/PC_G_EU4" CO2="3808.25" CO="149.84" HC="0.77" NOx="1.70" PMx="0.08" fuel="1.64" electricity="0.00" noise="67.21" route="!car36.0!var#1" type="car" waiting="0.00" lane="A3B3_0" pos="7.45" speed="2.35" angle="90.00" x="7.45" y="298.40"/>
        <vehicle id="car39.0" eclass="HBEFA3/PC_G_EU4" CO2="3556.34" CO="148.37" HC="0.76" NOx="1.59" PMx="0.08" fuel="1.53" electricity="0.00" noise="66.08" route="!car39.0!var#1" type="car" waiting="0.00" lane="A4B4_0" pos="7.22" speed="2.12" angle="90.00" x="7.22" y="398.40"/>
        <vehicle id="car45.0" eclass="HBEFA3/PC_G_EU4" CO2="3810.98" CO="149.86" HC="0.77" NOx="1.70" PMx="0.08" fuel="1.64" electricity="0.00" noise="67.22" route="!car45.0!var#1" type="car" waiting="0.00" lane="E4D4_0" pos="7.46" speed="2.36" angle="270.00" x="385.34" y="401.60"/>
        <vehicle id="car5.0" eclass="HBEFA3/PC_G_EU4" CO2="3871.85" CO="150.28" HC="0.78" NOx="1.73" PMx="0.09" fuel="1.66" electricity="0.00" noise="67.47" route="!car5.0!var#1" type="car" waiting="0.00" lane="C6C5_0" pos="7.51" speed="2.41" angle="180.00" x="198.40" y="592.49"/>
        <vehicle id="car6.0" eclass="HBEFA3/PC_G_EU4" CO2="3666.57" CO="148.95" HC="0.76" NOx="1.63" PMx="0.08" fuel="1.58" electricity="0.00" noise="66.59" route="!car6.0!var#1" type="car" waiting="0.00" lane="E2D2_0" pos="7.33" speed="2.23" angle="270.00" x="385.47" y="201.60"/>
        <vehicle id="car67.0" eclass="HBEFA3/PC_G_EU4" CO2="3630.36" CO="148.75" HC="0.76" NOx="1.62" PMx="0.08" fuel="1.56" electricity="0.00" noise="66.43" route="!car67.0!var#1" type="car" waiting="0.00" lane="E6E5_0" pos="7.29" speed="2.19" angle="180.00" x="398.40" y="592.71"/>
        <vehicle id="car7.0" eclass="HBEFA3/PC_G_EU4" CO2="3603.27" CO="148.60" HC="0.76" NOx="1.61" PMx="0.08" fuel="1.55" electricity="0.00" noise="66.30" route="!car7.0!var#1" type="car" waiting="0.00" lane="E5D5_0" pos="7.27" speed="2.17" angle="270.00" x="385.53" y="501.60"/>
        <vehicle id="car9.0" eclass="HBEFA3/PC_G_EU4" CO2="3599.05" CO="148.58" HC="0.76" NOx="1.60" PMx="0.08" fuel="1.55" electricity="0.00" noise="66.28" route="!car9.0!var#1" type="car" waiting="0.00" lane="F0F1_0" pos="7.26" speed="2.16" angle="0.00" x="501.60" y="7.26"/>
        <vehicle id="mec12" eclass="HBEFA3/PC_G_EU4" CO2="2624.72" CO="164.78" HC="0.81" NOx="1.20" PMx="0.07" fuel="1.13" electricity="0.00" noise="55.94" route="!mec12" type="car" waiting="0.00" lane="F1F0_0" pos="92.80" speed="0.00" angle="180.00" x="498.40" y="0.00"/>
    </timestep>
    <timestep time="2.00">
        <vehicle id="car0.0" eclass="HBEFA3/PC_G_EU4" CO2="5095.07" CO="140.06" HC="0.76" NOx="2.24" PMx="0.11" fuel="2.19" electricity="0.00" noise="68.06" route="!car0.0!var#1" type="car" waiting="0.00" lane="F6F5_0" pos="12.44" speed="4.83" angle="180.00" x="498.40" y="587.56"/>
        <vehicle id="car1.0" eclass="HBEFA3/PC_G_EU4" CO2="5164.06" CO="143.45" HC="0.78" NOx="2.27" PMx="0.11" fuel="2.22" electricity="0.00" noise="68.53" route="!car1.0!var#1" type="car" waiting="0.00" lane="B0B1_0" pos="12.03" speed="4.68" angle="0.00" x="101.60" y="12.03"/>
        <vehicle id="car10.0" eclass="HBEFA3/PC_G_EU4" CO2="4984.60" CO="142.56" HC="0.77" NOx="2.20" PMx="0.11" fuel="2.14" electricity="0.00" noise="68.21" route="!car10.0!var#1" type="car" waiting="0.00" lane="A5B5_0" pos="11.68" speed="4.48" angle="90.00" x="11.68" y="498.40"/>
        <vehicle id="car11.0" eclass="HBEFA3/PC_G_EU4" CO2="4760.11" CO="135.36" HC="0.73" NOx="2.08" PMx="0.10" fuel="2.05" electricity="0.00" noise="67.11" route="!car11.0!var#1" type="car" waiting="0.00" lane="E0E1_0" pos="12.32" speed="4.67" angle="0.00" x="401.60" y="12.32"/>
        <vehicle id="car14.0" eclass="HBEFA3/PC_G_EU4" CO2="4588.31" CO="136.95" HC="0.73" NOx="2.01" PMx="0.10" fuel="1.97" electricity="0.00" noise="66.99" route="!car14.0!var#1" type="car" waiting="0.00" lane="B6B5_0" pos="11.58" speed="4.30" angle="180.00" x="98.40" y="588.42"/>
        <vehicle id="car15.0" eclass="HBEFA3/PC_G_EU4" CO2="5437.08" CO="145.55" HC="0.79" NOx="2.40" PMx="0.12" fuel="2.34" electricity="0.00" noise="69.06" route="!car15.0!var#1" type="car" waiting="0.00" lane="A1B1_0" pos="12.45" speed="4.94" angle="90.00" x="12.45" y="98.40"/>
        <vehicle id="car19.0" eclass="HBEFA3/PC_G_EU4" CO2="5359.76" CO="144.19" HC="0.78" NOx="2.36" PMx="0.11" fuel="2.30" electricity="0.00" noise="68.82" route="!car19.0!var#1" type="car" waiting="0.00" lane="D0D1_0" pos="12.47" speed="4.92" angle="0.00" x="301.60" y="12.47"/>
        <vehicle id="car2.0" eclass="HBEFA3/PC_G_EU4" CO2="5317.60" CO="142.51" HC="0.77" NOx="2.34" PMx="0.11" fuel="2.29" electricity="0.00" noise="68.59" route="!car2.0!var#1" type="car" waiting="0.00" lane="A2B2_0" pos="12.65" speed="4.98" angle="90.00" x="12.65" y="198.40"/>
        <vehicle id="car20.0" eclass="HBEFA3/PC_G_EU4" CO2="4968.61" CO="139.80" HC="0.75" NOx="2.18" PMx="0.10" fuel="2.14" electricity="0.00" noise="67.87" route="!car20.0!var#1" type="car" waiting="0.00" lane="D6D5_0" pos="12.12" speed="4.66" angle="180.00" x="298.40" y="587.88"/>
        <vehicle id="car24.0" eclass="HBEFA3/PC_G_EU4" CO2="5145.89" CO="141.38" HC="0.77" NOx="2.26" PMx="0.11" fuel="2.21" electricity="0.00" noise="68.27" route="!car24.0!var#1" type="car" waiting="0.00" lane="E1D1_0" pos="12.35" speed="4.81" angle="270.00" x="380.45" y="101.60"/>
        <vehicle id="car25.0" eclass="HBEFA3/PC_G_EU4" CO2="5047.29" CO="139.93" HC="0.76" NOx="2.22" PMx="0.11" fuel="2.17" electricity="0.00" noise="67.99" route="!car25.0!var#1" type="car" waiting="0.00" lane="C0C1_0" pos="12.32" speed="4.76" angle="0.00" x="201.60" y="12.32"/>
        <vehicle id="car27.0" eclass="HBEFA3/PC_G_EU4" CO2="5523.69" CO="146.37" HC="0.80" NOx="2.44" PMx="0.12" fuel="2.37" electricity="0.00" noise="69.23" route="!car27.0!var#1" type="car" waiting="0.00" lane="E3D3_0" pos="12.56" speed="5.01" angle="270.00" x="380.24" y="301.60"/>
        <vehicle id="car32.0" eclass="HBEFA3/PC_G_EU4" CO2="2624.72" CO="164.78" HC="0.81" NOx="1.20" PMx="0.07" fuel="1.13" electricity="0.00" noise="55.94" route="!car32.0!var#1" type="car" waiting="0.00" lane="A2B2_0" pos="5.10" speed="0.00" angle="90.00" x="5.10" y="198.40"/>
        <vehicle id="car36.0" eclass="HBEFA3/PC_G_EU4" CO2="4736.61" CO="137.01" HC="0.74" NOx="2.08" PMx="0.10" fuel="2.04" electricity="0.00" noise="67.24" route="!car36.0!var#1" type="car" waiting="0.00" lane="A3B3_0" pos="11.97" speed="4.51" angle="90.00" x="11.97" y="298.40"/>
        <vehicle id="car39.0" eclass="HBEFA3/PC_G_EU4" CO2="4987.79" CO="142.38" HC="0.77" NOx="2.20" PMx="0.11" fuel="2.14" electricity="0.00" noise="68.19" route="!car39.0!var#1" type="car" waiting="0.00" lane="A4B4_0" pos="11.72" speed="4.50" angle="90.00" x="11.72" y="398.40"/>
        <vehicle id="car45.0" eclass="HBEFA3/PC_G_EU4" CO2="4698.31" CO="136.51" HC="0.73" NOx="2.06" PMx="0.10" fuel="2.02" electricity="0.00" noise="67.12" route="!car45.0!var#1" type="car" waiting="0.00" lane="E4D4_0" pos="11.95" speed="4.49" angle="270.00" x="380.85" y="401.60"/>
        <vehicle id="car5.0" eclass="HBEFA3/PC_G_EU4" CO2="4952.59" CO="139.18" HC="0.75" NOx="2.18" PMx="0.10" fuel="2.13" electricity="0.00" noise="67.78" route="!car5.0!var#1" type="car" waiting="0.00" lane="C6C5_0" pos="12.19" speed="4.68" angle="180.00" x="198.40" y="587.81"/>
        <vehicle id="car6.0" eclass="HBEFA3/PC_G_EU4" CO2="5277.23" CO="145.10" HC="0.79" NOx="2.33" PMx="0.11" fuel="2.27" electricity="0.00" noise="68.85" route="!car6.0!var#1" type="car" waiting="0.00" lane="E2D2_0" pos="12.06" speed="4.73" angle="270.00" x="380.74" y="201.60"/>
        <vehicle id="car67.0" eclass="HBEFA3/PC_G_EU4" CO2="5265.57" CO="145.27" HC="0.79" NOx="2.32" PMx="0.11" fuel="2.26" electricity="0.00" noise="68.86" route="!car67.0!var#1" type="car" waiting="0.00" lane="E6E5_0" pos="11.99" speed="4.70" angle="180.00" x="398.40" y="588.01"/>
        <vehicle id="car7.0" eclass="HBEFA3/PC_G_EU4" CO2="5109.55" CO="143.49" HC="0.77" NOx="2.25" PMx="0.11" fuel="2.20" electricity="0.00" noise="68.47" route="!car7.0!var#1" type="car" waiting="0.00" lane="E5D5_0" pos="11.86" speed="4.60" angle="270.00" x="380.94" y="501.60"/>
        <vehicle id="car9.0" eclass="HBEFA3/PC_G_EU4" CO2="5404.75" CO="147.37" HC="0.80" NOx="2.39" PMx="0.12" fuel="2.32" electricity="0.00" noise="69.26" route="!car9.0!var#1" type="car" waiting="0.00" lane="F0F1_0" pos="12.02" speed="4.76" angle="0.00" x="501.60" y="12.02"/>
    </timestep>
    <timestep time="3.00">
        <vehicle id="car0.0" eclass="HBEFA3/PC_G_EU4" CO2="6590.19" CO="140.64" HC="0.80" NOx="2.88" PMx="0.14" fuel="2.83" electricity="0.00" noise="69.44" route="!car0.0!var#1" type="car" waiting="0.00" lane="F6F5_0" pos="19.65" speed="7.22" angle="180.00" x="498.40" y="580.35"/>
        <vehicle id="car1.0" eclass="HBEFA3/PC_G_EU4" CO2="5911.72" CO="131.30" HC="0.74" NOx="2.57" PMx="0.12" fuel="2.54" electricity="0.00" noise="68.19" route="!car1.0!var#1" type="car" waiting="0.00" lane="B0B1_0" pos="18.85" speed="6.82" angle="0.00" x="101.60" y="18.85"/>
        <vehicle id="car10.0" eclass="HBEFA3/PC_G_EU4" CO2="5935.45" CO="133.53" HC="0.75" NOx="2.59" PMx="0.12" fuel="2.55" electricity="0.00" noise="68.37" route="!car10.0!var#1" type="car" waiting="0.00" lane="A5B5_0" pos="18.36" speed="6.68" angle="90.00" x="18.36" y="498.40"/>
        <vehicle id="car11.0" eclass="HBEFA3/PC_G_EU4" CO2="6802.40" CO="145.41" HC="0.82" NOx="2.98" PMx="0.14" fuel="2.92" electricity="0.00" noise="69.96" route="!car11.0!var#1" type="car" waiting="0.00" lane="E0E1_0" pos="19.50" speed="7.18" angle="0.00" x="401.60" y="19.50"/>
        <vehicle id="car12.0" eclass="HBEFA3/PC_G_EU4" CO2="2624.72" CO="164.78" HC="0.81" NOx="1.20" PMx="0.07" fuel="1.13" electricity="0.00" noise="55.94" route="!car12.0!var#1" type="car" waiting="0.00" lane="E2D2_0" pos="5.10" speed="0.00" angle="270.00" x="387.70" y="201.60"/>
        <vehicle id="car13.0" eclass="HBEFA3/PC_G_EU4" CO2="2624.72" CO="164.78" HC="0.81" NOx="1.20" PMx="0.07" fuel="1.13" electricity="0.00" noise="55.94" route="!car13.0!var#1" type="car" waiting="0.00" lane="F0F1_0" pos="5.10" speed="0.00" angle="0.00" x="501.60" y="5.10"/>
        <vehicle id="car14.0" eclass="HBEFA3/PC_G_EU4" CO2="6243.95" CO="139.92" HC="0.79" NOx="2.73" PMx="0.13" fuel="2.68" electricity="0.00" noise="69.14" route="!car14.0!var#1" type="car" waiting="0.00" lane="B6B5_0" pos="18.25" speed="6.67" angle="180.00" x="98.40" y="581.75"/>
        <vehicle id="car15.0" eclass="HBEFA3/PC_G_EU4" CO2="6414.25" CO="136.83" HC="0.78" NOx="2.80" PMx="0.13" fuel="2.76" electricity="0.00" noise="69.02" route="!car15.0!var#1" type="car" waiting="0.00" lane="A1B1_0" pos="19.68" speed="7.23" angle="90.00" x="19.68" y="98.40"/>
        <vehicle id="car17.0" eclass="HBEFA3/PC_G_EU4" CO2="2624.72" CO="164.78" HC="0.81" NOx="1.20" PMx="0.07" fuel="1.13" electricity="0.00" noise="55.94" route="!car17.0!var#1" type="car" waiting="0.00" lane="A5B5_0" pos="5.10" speed="0.00" angle="90.00" x="5.10" y="498.40"/>
        <vehicle id="car18.0" eclass="HBEFA3/PC_G_EU4" CO2="2624.72" CO="164.78" HC="0.81" NOx="1.20" PMx="0.07" fuel="1.13" electricity="0.00" noise="55.94" route="!car18.0!var#1" type="car" waiting="0.00" lane="B0B1_0" pos="5.10" speed="0.00" angle="0.00" x="101.60" y="5.10"/>
        <vehicle id="car19.0" eclass="HBEFA3/PC_G_EU4" CO2="6979.73" CO="146.04" HC="0.83" NOx="3.06" PMx="0.15" fuel="3.00" electricity="0.00" noise="70.10" route="!car19.0!var#1" type="car" waiting="0.00" lane="D0D1_0" pos="19.91" speed="7.44" angle="0.00" x="301.60" y="19.91"/>
        <vehicle id="car2.0" eclass="HBEFA3/PC_G_EU4" CO2="6002.59" CO="129.95" HC="0.73" NOx="2.61" PMx="0.12" fuel="2.58" electricity="0.00" noise="68.19" route="!car2.0!var#1" type="car" waiting="0.00" lane="A2B2_0" pos="19.74" speed="7.09" angle="90.00" x="19.74" y="198.40"/>
        <vehicle id="car20.0" eclass="HBEFA3/PC_G_EU4" CO2="5972.40" CO="132.49" HC="0.75" NOx="2.60" PMx="0.12" fuel="2.57" electricity="0.00" noise="68.33" route="!car20.0!var#1" type="car" waiting="0.00" lane="D6D5_0" pos="18.95" speed="6.83" angle="180.00" x="298.40" y="581.05"/>
        <vehicle id="car23.0" eclass="HBEFA3/PC_G_EU4" CO2="2624.72" CO="164.78" HC="0.81" NOx="1.20" PMx="0.07" fuel="1.13" electricity="0.00" noise="55.94" route="!car23.0!var#1" type="car" waiting="0.00" lane="E0E1_0" pos="5.10" speed="0.00" angle="0.00" x="401.60" y="5.10"/>
        <vehicle id="car24.0" eclass="HBEFA3/PC_G_EU4" CO2="7102.48" CO="149.02" HC="0.85" NOx="3.12" PMx="0.15" fuel="3.05" electricity="0.00" noise="70.41" route="!car24.0!var#1" type="car" waiting="0.00" lane="E1D1_0" pos="19.75" speed="7.40" angle="270.00" x="373.05" y="101.60"/>
        <vehicle id="car25.0" eclass="HBEFA3/PC_G_EU4" CO2="6433.23" CO="138.70" HC="0.78" NOx="2.81" PMx="0.13" fuel="2.77" electricity="0.00" noise="69.18" route="!car25.0!var#1" type="car" waiting="0.00" lane="C0C1_0" pos="19.43" speed="7.10" angle="0.00" x="201.60" y="19.43"/>
        <vehicle id="car26.0" eclass="HBEFA3/PC_G_EU4" CO2="2624.72" CO="164.78" HC="0.81" NOx="1.20" PMx="0.07" fuel="1.13" electricity="0.00" noise="55.94" route="!car26.0!var#1" type="car" waiting="0.00" lane="E1D1_0" pos="5.10" speed="0.00" angle="270.00" x="387.70" y="101.60"/>
        <vehicle id="car27.0" eclass="HBEFA3/PC_G_EU4" CO2="6977.51" CO="145.24" HC="0.83" NOx="3.06" PMx="0.15" fuel="3.00" electricity="0.00" noise="70.03" route="!car27.0!var#1" type="car" waiting="0.00" lane="E3D3_0" pos="20.07" speed="7.51" angle="270.00" x="372.73" y="301.60"/>
        <vehicle id="car28.0" eclass="HBEFA3/PC_G_EU4" CO2="2624.72" CO="164.78" HC="0.81" NOx="1.20" PMx="0.07" fuel="1.13" electricity="0.00" noise="55.94" route="!car28.0!var#1" type="car" waiting="0.00" lane="B6B5_0" pos="5.10" speed="0.00" angle="180.00" x="98.40" y="594.90"/>
        <vehicle id="car29.0" eclass="HBEFA3/PC_G_EU4" CO2="2624.72" CO="164.78" HC="0.81" NOx="1.20" PMx="0.07" fuel="1.13" electricity="0.00" noise="55.94" route="!car29" type="car" waiting="0.00" lane="D0D1_0" pos="5.10" speed="0.00" angle="0.00" x="301.60" y="5.10"/>
        <vehicle id="car3.0" eclass="HBEFA3/PC_G_EU4" CO2="2624.72" CO="164.78" HC="0.81" NOx="1.20" PMx="0.07" fuel="1.13" electricity="0.00" noise="55.94" route="!car3.0!var#1" type="car" waiting="0.00" lane="F6F5_0" pos="5.10" speed="0.00" angle="180.00" x="498.40" y="594.90"/>
        <vehicle id="car32.0" eclass="HBEFA3/PC_G_EU4" CO2="2628.61" CO="155.93" HC="0.77" NOx="1.19" PMx="0.06" fuel="1.13" electricity="0.00" noise="58.38" route="!car32.0!var#1" type="car" waiting="0.00" lane="A2B2_0" pos="5.61" speed="0.51" angle="90.00" x="5.61" y="198.40"/>
        <vehicle id="car35.0" eclass="HBEFA3/PC_G_EU4" CO2="2624.72" CO="164.78" HC="0.81" NOx="1.20" PMx="0.07" fuel="1.13" electricity="0.00" noise="55.94" route="!car35.0!var#1" type="car" waiting="0.00" lane="E5D5_0" pos="5.10" speed="0.00" angle="270.00" x="387.70" y="501.60"/>
        <vehicle id="car36.0" eclass="HBEFA3/PC_G_EU4" CO2="6340.61" CO="139.49" HC="0.79" NOx="2.77" PMx="0.13" fuel="2.73" electricity="0.00" noise="69.18" route="!car36.0!var#1" type="car" waiting="0.00" lane="A3B3_0" pos="18.84" speed="6.88" angle="90.00" x="18.84" y="298.40"/>
        <vehicle id="car37.0" eclass="HBEFA3/PC_G_EU4" CO2="2624.72" CO="164.78" HC="0.81" NOx="1.20" PMx="0.07" fuel="1.13" electricity="0.00" noise="55.94" route="!car37.0!var#1" type="car" waiting="0.00" lane="A3B3_0" pos="5.10" speed="0.00" angle="90.00" x="5.10" y="298.40"/>
        <vehicle id="car39.0" eclass="HBEFA3/PC_G_EU4" CO2="5986.83" CO="134.15" HC="0.75" NOx="2.61" PMx="0.12" fuel="2.57" electricity="0.00" noise="68.47" route="!car39.0!var#1" type="car" waiting="0.00" lane="A4B4_0" pos="18.43" speed="6.71" angle="90.00" x="18.43" y="398.40"/>
        <vehicle id="car41.0" eclass="HBEFA3/PC_G_EU4" CO2="2624.72" CO="164.78" HC="0.81" NOx="1.20" PMx="0.07" fuel="1.13" electricity="0.00" noise="55.94" route="!car41.0!var#1" type="car" waiting="0.00" lane="A1B1_0" pos="5.10" speed="0.00" angle="90.00" x="5.10" y="98.40"/>