<?xml version="1.0" encoding="UTF-8"?>

<!-- generated on Sun Oct  2 21:59:51 2022 by Eclipse SUMO Version 1.4.0
<configuration xmlns:xsi="http://www.w3.org/2001/XMLSchema-instance" xsi:noNamespaceSchemaLocation="http://sumo.dlr.de/xsd/sumoConfiguration.xsd">

    <input>
        <net-file value="grid4x4.net.xml"/>
        <route-files value="random.rou.xml"/>
    </input>

    <output>
        <emission-output value="emission.xml"/>
    </output>

    <traci_server>
        <remote-port value="53049"/>
    </traci_server>

</configuration>
-->

<emission-export xmlns:xsi="http://www.w3.org/2001/XMLSchema-instance" xsi:noNamespaceSchemaLocation="http://sumo.dlr.de/xsd/emission_file.xsd">
    <timestep time="0.00">
        <vehicle id="car0.0" eclass="HBEFA3/PC_G_EU4" CO2="2624.72" CO="164.78" HC="0.81" NOx="1.20" PMx="0.07" fuel="1.13" electricity="0.00" noise="55.94" route="!car0" type="car" waiting="0.00" lane="-G0_0" pos="5.10" speed="0.00" angle="90.00" x="212.30" y="198.40"/>
        <vehicle id="car1.0" eclass="HBEFA3/PC_G_EU4" CO2="2624.72" CO="164.78" HC="0.81" NOx="1.20" PMx="0.07" fuel="1.13" electricity="0.00" noise="55.94" route="!car1.0!var#1" type="car" waiting="0.00" lane="-F2_0" pos="5.10" speed="0.00" angle="90.00" x="12.30" y="98.40"/>
        <vehicle id="car10.0" eclass="HBEFA3/PC_G_EU4" CO2="2624.72" CO="164.78" HC="0.81" NOx="1.20" PMx="0.07" fuel="1.13" electricity="0.00" noise="55.94" route="!car10.0!var#1" type="car" waiting="0.00" lane="-D1_0" pos="5.10" speed="0.00" angle="180.00" x="298.40" y="187.70"/>
        <vehicle id="car11.0" eclass="HBEFA3/PC_G_EU4" CO2="2624.72" CO="164.78" HC="0.81" NOx="1.20" PMx="0.07" fuel="1.13" electricity="0.00" noise="55.94" route="!car11.0!var#1" type="car" waiting="0.00" lane="-B2_0" pos="5.10" speed="0.00" angle="180.00" x="98.40" y="287.70"/>
        <vehicle id="car12.0" eclass="HBEFA3/PC_G_EU4" CO2="2624.72" CO="164.78" HC="0.81" NOx="1.20" PMx="0.07" fuel="1.13" electricity="0.00" noise="55.94" route="!car12.0!var#1" type="car" waiting="0.00" lane="A2_0" pos="5.10" speed="0.00" angle="0.00" x="1.60" y="212.30"/>
        <vehicle id="car13.0" eclass="HBEFA3/PC_G_EU4" CO2="2624.72" CO="164.78" HC="0.81" NOx="1.20" PMx="0.07" fuel="1.13" electricity="0.00" noise="55.94" route="!car13.0!var#1" type="car" waiting="0.00" lane="E2_0" pos="5.10" speed="0.00" angle="270.00" x="87.70" y="1.60"/>
        <vehicle id="car15.0" eclass="HBEFA3/PC_G_EU4" CO2="2624.72" CO="164.78" HC="0.81" NOx="1.20" PMx="0.07" fuel="1.13" electricity="0.00" noise="55.94" route="!car15.0!var#1" type="car" waiting="0.00" lane="-F0_0" pos="5.10" speed="0.00" angle="90.00" x="212.30" y="98.40"/>
        <vehicle id="car17.0" eclass="HBEFA3/PC_G_EU4" CO2="2624.72" CO="164.78" HC="0.81" NOx="1.20" PMx="0.07" fuel="1.13" electricity="0.00" noise="55.94" route="!car17.0!var#1" type="car" waiting="0.00" lane="-H1_0" pos="5.10" speed="0.00" angle="90.00" x="112.30" y="298.40"/>
        <vehicle id="car18.0" eclass="HBEFA3/PC_G_EU4" CO2="2624.72" CO="164.78" HC="0.81" NOx="1.20" PMx="0.07" fuel="1.13" electricity="0.00" noise="55.94" route="!car18.0!var#1" type="car" waiting="0.00" lane="A0_0" pos="5.10" speed="0.00" angle="0.00" x="1.60" y="8.30"/>
        <vehicle id="car19.0" eclass="HBEFA3/PC_G_EU4" CO2="2624.72" CO="164.78" HC="0.81" NOx="1.20" PMx="0.07" fuel="1.13" electricity="0.00" noise="55.94" route="!car19.0!var#1" type="car" waiting="0.00" lane="-G2_0" pos="5.10" speed="0.00" angle="90.00" x="12.30" y="198.40"/>
        <vehicle id="car2.0" eclass="HBEFA3/PC_G_EU4" CO2="2624.72" CO="164.78" HC="0.81" NOx="1.20" PMx="0.07" fuel="1.13" electricity="0.00" noise="55.94" route="!car2.0!var#1" type="car" waiting="0.00" lane="H1_0" pos="5.10" speed="0.00" angle="270.00" x="187.70" y="301.60"/>
        <vehicle id="car20.0" eclass="HBEFA3/PC_G_EU4" CO2="2624.72" CO="164.78" HC="0.81" NOx="1.20" PMx="0.07" fuel="1.13" electricity="0.00" noise="55.94" route="!car20.0!var#1" type="car" waiting="0.00" lane="B0_0" pos="5.10" speed="0.00" angle="0.00" x="101.60" y="12.30"/>
        <vehicle id="car21.0" eclass="HBEFA3/PC_G_EU4" CO2="2624.72" CO="164.78" HC="0.81" NOx="1.20" PMx="0.07" fuel="1.13" electricity="0.00" noise="55.94" route="!car21.0!var#1" type="car" waiting="0.00" lane="D0_0" pos="5.10" speed="0.00" angle="0.00" x="301.60" y="8.30"/>
        <vehicle id="car22.0" eclass="HBEFA3/PC_G_EU4" CO2="2624.72" CO="164.78" HC="0.81" NOx="1.20" PMx="0.07" fuel="1.13" electricity="0.00" noise="55.94" route="!car22.0!var#1" type="car" waiting="0.00" lane="-G1_0" pos="5.10" speed="0.00" angle="90.00" x="112.30" y="198.40"/>
        <vehicle id="car23.0" eclass="HBEFA3/PC_G_EU4" CO2="2624.72" CO="164.78" HC="0.81" NOx="1.20" PMx="0.07" fuel="1.13" electricity="0.00" noise="55.94" route="!car23.0!var#1" type="car" waiting="0.00" lane="-B0_0" pos="5.10" speed="0.00" angle="180.00" x="98.40" y="87.70"/>
        <vehicle id="car25.0" eclass="HBEFA3/PC_G_EU4" CO2="2624.72" CO="164.78" HC="0.81" NOx="1.20" PMx="0.07" fuel="1.13" electricity="0.00" noise="55.94" route="!car25.0!var#1" type="car" waiting="0.00" lane="G1_0" pos="5.10" speed="0.00" angle="270.00" x="187.70" y="201.60"/>
        <vehicle id="car27.0" eclass="HBEFA3/PC_G_EU4" CO2="2624.72" CO="164.78" HC="0.81" NOx="1.20" PMx="0.07" fuel="1.13" electricity="0.00" noise="55.94" route="!car27.0!var#1" type="car" waiting="0.00" lane="H0_0" pos="5.10" speed="0.00" angle="270.00" x="291.70" y="301.60"/>
        <vehicle id="car28.0" eclass="HBEFA3/PC_G_EU4" CO2="2624.72" CO="164.78" HC="0.81" NOx="1.20" PMx="0.07" fuel="1.13" electricity="0.00" noise="55.94" route="!car28.0!var#1" type="car" waiting="0.00" lane="-C1_0" pos="5.10" speed="0.00" angle="180.00" x="198.40" y="187.70"/>
        <vehicle id="car3.0" eclass="HBEFA3/PC_G_EU4" CO2="2624.72" CO="164.78" HC="0.81" NOx="1.20" PMx="0.07" fuel="1.13" electricity="0.00" noise="55.94" route="!car3" type="car" waiting="0.00" lane="G0_0" pos="5.10" speed="0.00" angle="270.00" x="287.70" y="201.60"/>
        <vehicle id="car30.0" eclass="HBEFA3/PC_G_EU4" CO2="2624.72" CO="164.78" HC="0.81" NOx="1.20" PMx="0.07" fuel="1.13" electricity="0.00" noise="55.94" route="!car30.0!var#1" type="car" waiting="0.00" lane="-E0_0" pos="5.10" speed="0.00" angle="90.00" x="212.30" y="-1.60"/>
        <vehicle id="car32.0" eclass="HBEFA3/PC_G_EU4" CO2="2624.72" CO="164.78" HC="0.81" NOx="1.20" PMx="0.07" fuel="1.13" electricity="0.00" noise="55.94" route="!car32.0!var#1" type="car" waiting="0.00" lane="-F1_0" pos="5.10" speed="0.00" angle="90.00" x="112.30" y="98.40"/>
        <vehicle id="car33.0" eclass="HBEFA3/PC_G_EU4" CO2="2624.72" CO="164.78" HC="0.81" NOx="1.20" PMx="0.07" fuel="1.13" electricity="0.00" noise="55.94" route="!car33.0!var#1" type="car" waiting="0.00" lane="-A2_0" pos="5.10" speed="0.00" angle="180.00" x="-1.60" y="291.70"/>
        <vehicle id="car35.0" eclass="HBEFA3/PC_G_EU4" CO2="2624.72" CO="164.78" HC="0.81" NOx="1.20" PMx="0.07" fuel="1.13" electricity="0.00" noise="55.94" route="!car35.0!var#1" type="car" waiting="0.00" lane="G2_0" pos="5.10" speed="0.00" angle="270.00" x="87.70" y="201.60"/>
        <vehicle id="car37.0" eclass="HBEFA3/PC_G_EU4" CO2="2624.72" CO="164.78" HC="0.81" NOx="1.20" PMx="0.07" fuel="1.13" electricity="0.00" noise="55.94" route="!car37.0!var#1" type="car" waiting="0.00" lane="D2_0" pos="5.10" speed="0.00" angle="0.00" x="301.60" y="212.30"/>
        <vehicle id="car4.0" eclass="HBEFA3/PC_G_EU4" CO2="2624.72" CO="164.78" HC="0.81" NOx="1.20" PMx="0.07" fuel="1.13" electricity="0.00" noise="55.94" route="!car4.0!var#1" type="car" waiting="0.00" lane="B1_0" pos="5.10" speed="0.00" angle="0.00" x="101.60" y="112.30"/>
        <vehicle id="car40.0" eclass="HBEFA3/PC_G_EU4" CO2="2624.72" CO="164.78" HC="0.81" NOx="1.20" PMx="0.07" fuel="1.13" electricity="0.00" noise="55.94" route="!car40.0!var#1" type="car" waiting="0.00" lane="-A1_0" pos="5.10" speed="0.00" angle="180.00" x="-1.60" y="187.70"/>
        <vehicle id="car45.0" eclass="HBEFA3/PC_G_EU4" CO2="2624.72" CO="164.78" HC="0.81" NOx="1.20" PMx="0.07" fuel="1.13" electricity="0.00" noise="55.94" route="!car45" type="car" waiting="0.00" lane="-E1_0" pos="5.10" speed="0.00" angle="90.00" x="112.30" y="-1.60"/>
        <vehicle id="car46.0" eclass="HBEFA3/PC_G_EU4" CO2="2624.72" CO="164.78" HC="0.81" NOx="1.20" PMx="0.07" fuel="1.13" electricity="0.00" noise="55.94" route="!car46.0!var#1" type="car" waiting="0.00" lane="C1_0" pos="5.10" speed="0.00" angle="0.00" x="201.60" y="112.30"/>
        <vehicle id="car48.0" eclass="HBEFA3/PC_G_EU4" CO2="2624.72" CO="164.78" HC="0.81" NOx="1.20" PMx="0.07" fuel="1.13" electricity="0.00" noise="55.94" route="!car48.0!var#1" type="car" waiting="0.00" lane="-D0_0" pos="5.10" speed="0.00" angle="180.00" x="298.40" y="87.70"/>
        <vehicle id="car5.0" eclass="HBEFA3/PC_G_EU4" CO2="2624.72" CO="164.78" HC="0.81" NOx="1.20" PMx="0.07" fuel="1.13" electricity="0.00" noise="55.94" route="!car5.0!var#1" type="car" waiting="0.00" lane="C0_0" pos="5.10" speed="0.00" angle="0.00" x="201.60" y="12.30"/>
        <vehicle id="car50.0" eclass="HBEFA3/PC_G_EU4" CO2="2624.72" CO="164.78" HC="0.81" NOx="1.20" PMx="0.07" fuel="1.13" electricity="0.00" noise="55.94" route="!car50" type="car" waiting="0.00" lane="B2_0" pos="5.10" speed="0.00" angle="0.00" x="101.60" y="212.30"/>
        <vehicle id="car51.0" eclass="HBEFA3/PC_G_EU4" CO2="2624.72" CO="164.78" HC="0.81" NOx="1.20" PMx="0.07" fuel="1.13" electricity="0.00" noise="55.94" route="!car51.0!var#1" type="car" waiting="0.00" lane="F1_0" pos="5.10" speed="0.00" angle="270.00" x="187.70" y="101.60"/>
        <vehicle id="car53.0" eclass="HBEFA3/PC_G_EU4" CO2="2624.72" CO="164.78" HC="0.81" NOx="1.20" PMx="0.07" fuel="1.13" electricity="0.00" noise="55.94" route="!car53.0!var#1" type="car" waiting="0.00" lane="-D2_0" pos="5.10" speed="0.00" angle="180.00" x="298.40" y="291.70"/>
        <vehicle id="car57.0" eclass="HBEFA3/PC_G_EU4" CO2="2624.72" CO="164.78" HC="0.81" NOx="1.20" PMx="0.07" fuel="1.13" electricity="0.00" noise="55.94" route="!car57.0!var#1" type="car" waiting="0.00" lane="-B1_0" pos="5.10" speed="0.00" angle="180.00" x="98.40" y="187.70"/>
        <vehicle id="car59.0" eclass="HBEFA3/PC_G_EU4" CO2="2624.72" CO="164.78" HC="0.81" NOx="1.20" PMx="0.07" fuel="1.13" electricity="0.00" noise="55.94" route="!car59" type="car" waiting="0.00" lane="F0_0" pos="5.10" speed="0.00" angle="270.00" x="287.70" y="101.60"/>
        <vehicle id="car6.0" eclass="HBEFA3/PC_G_EU4" CO2="2624.72" CO="164.78" HC="0.81" NOx="1.20" PMx="0.07" fuel="1.13" electricity="0.00" noise="55.94" route="!car6.0!var#1" type="car" waiting="0.00" lane="D1_0" pos="5.10" speed="0.00" angle="0.00" x="301.60" y="112.30"/>
        <vehicle id="car62.0" eclass="HBEFA3/PC_G_EU4" CO2="2624.72" CO="164.78" HC="0.81" NOx="1.20" PMx="0.07" fuel="1.13" electricity="0.00" noise="55.94" route="!car62.0!var#1" type="car" waiting="0.00" lane="E0_0" pos="5.10" speed="0.00" angle="270.00" x="291.70" y="1.60"/>
        <vehicle id="car65.0" eclass="HBEFA3/PC_G_EU4" CO2="2624.72" CO="164.78" HC="0.81" NOx="1.20" PMx="0.07" fuel="1.13" electricity="0.00" noise="55.94" route="!car65.0!var#1" type="car" waiting="0.00" lane="E1_0" pos="5.10" speed="0.00" angle="270.00" x="187.70" y="1.60"/>
        <vehicle id="car7.0" eclass="HBEFA3/PC_G_EU4" CO2="2624.72" CO="164.78" HC="0.81" NOx="1.20" PMx="0.07" fuel="1.13" electricity="0.00" noise="55.94" route="!car7.0!var#1" type="car" waiting="0.00" lane="A1_0" pos="5.10" speed="0.00" angle="0.00" x="1.60" y="112.30"/>
        <vehicle id="car73.0" eclass="HBEFA3/PC_G_EU4" CO2="2624.72" CO="164.78" HC="0.81" NOx="1.20" PMx="0.07" fuel="1.13" electricity="0.00" noise="55.94" route="!car73.0!var#1" type="car" waiting="0.00" lane="F2_0" pos="5.10" speed="0.00" angle="270.00" x="87.70" y="101.60"/>
        <vehicle id="car77.0" eclass="HBEFA3/PC_G_EU4" CO2="2624.72" CO="164.78" HC="0.81" NOx="1.20" PMx="0.07" fuel="1.13" electricity="0.00" noise="55.94" route="!car77.0!var#1" type="car" waiting="0.00" lane="-E2_0" pos="5.10" speed="0.00" angle="90.00" x="8.30" y="-1.60"/>
        <vehicle id="car8.0" eclass="HBEFA3/PC_G_EU4" CO2="2624.72" CO="164.78" HC="0.81" NOx="1.20" PMx="0.07" fuel="1.13" electricity="0.00" noise="55.94" route="!car8.0!var#1" type="car" waiting="0.00" lane="-C2_0" pos="5.10" speed="0.00" angle="180.00" x="198.40" y="287.70"/>
        <vehicle id="car9.0" eclass="HBEFA3/PC_G_EU4" CO2="2624.72" CO="164.78" HC="0.81" NOx="1.20" PMx="0.07" fuel="1.13" electricity="0.00" noise="55.94" route="!car9.0!var#1" type="car" waiting="0.00" lane="H2_0" pos="5.10" speed="0.00" angle="270.00" x="87.70" y="301.60"/>
        <vehicle id="car96.0" eclass="HBEFA3/PC_G_EU4" CO2="2624.72" CO="164.78" HC="0.81" NOx="1.20" PMx="0.07" fuel="1.13" electricity="0.00" noise="55.94" route="!car96" type="car" waiting="0.00" lane="-C0_0" pos="5.10" speed="0.00" angle="180.00" x="198.40" y="87.70"/>
        <vehicle id="car98.0" eclass="HBEFA3/PC_G_EU4" CO2="2624.72" CO="164.78" HC="0.81" NOx="1.20" PMx="0.07" fuel="1.13" electricity="0.00" noise="55.94" route="!car98" type="car" waiting="0.00" lane="C2_0" pos="5.10" speed="0.00" angle="0.00" x="201.60" y="212.30"/>
        <vehicle id="car99.0" eclass="HBEFA3/PC_G_EU4" CO2="2624.72" CO="164.78" HC="0.81" NOx="1.20" PMx="0.07" fuel="1.13" electricity="0.00" noise="55.94" route="!car99.0!var#1" type="car" waiting="0.00" lane="-H0_0" pos="5.10" speed="0.00" angle="90.00" x="212.30" y="298.40"/>
    </timestep>
    <timestep time="1.00">
        <vehicle id="car0.0" eclass="HBEFA3/PC_G_EU4" CO2="3808.25" CO="149.84" HC="0.77" NOx="1.70" PMx="0.08" fuel="1.64" electricity="0.00" noise="67.21" route="!car0" type="car" waiting="0.00" lane="-G0_0" pos="7.45" speed="2.35" angle="90.00" x="214.65" y="198.40"/>
        <vehicle id="car1.0" eclass="HBEFA3/PC_G_EU4" CO2="4056.02" CO="151.69" HC="0.79" NOx="1.81" PMx="0.09" fuel="1.74" electricity="0.00" noise="68.21" route="!car1.0!var#1" type="car" waiting="0.00" lane="-F2_0" pos="7.66" speed="2.56" angle="90.00" x="14.86" y="98.40"/>
        <vehicle id="car10.0" eclass="HBEFA3/PC_G_EU4" CO2="3703.25" CO="149.17" HC="0.77" NOx="1.65" PMx="0.08" fuel="1.59" electricity="0.00" noise="66.75" route="!car10.0!var#1" type="car" waiting="0.00" lane="-D1_0" pos="7.36" speed="2.26" angle="180.00" x="298.40" y="185.44"/>
        <vehicle id="car11.0" eclass="HBEFA3/PC_G_EU4" CO2="3617.83" CO="148.68" HC="0.76" NOx="1.61" PMx="0.08" fuel="1.56" electricity="0.00" noise="66.37" route="!car11.0!var#1" type="car" waiting="0.00" lane="-B2_0" pos="7.28" speed="2.18" angle="180.00" x="98.40" y="285.52"/>
        <vehicle id="car12.0" eclass="HBEFA3/PC_G_EU4" CO2="3964.76" CO="150.97" HC="0.78" NOx="1.77" PMx="0.09" fuel="1.70" electricity="0.00" noise="67.85" route="!car12.0!var#1" type="car" waiting="0.00" lane="A2_0" pos="7.59" speed="2.49" angle="0.00" x="1.60" y="214.79"/>
        <vehicle id="car13.0" eclass="HBEFA3/PC_G_EU4" CO2="3651.34" CO="148.86" HC="0.76" NOx="1.63" PMx="0.08" fuel="1.57" electricity="0.00" noise="66.52" route="!car13.0!var#1" type="car" waiting="0.00" lane="E2_0" pos="7.31" speed="2.21" angle="270.00" x="85.49" y="1.60"/>
        <vehicle id="car15.0" eclass="HBEFA3/PC_G_EU4" CO2="4048.70" CO="151.63" HC="0.79" NOx="1.81" PMx="0.09" fuel="1.74" electricity="0.00" noise="68.18" route="!car15.0!var#1" type="car" waiting="0.00" lane="-F0_0" pos="7.66" speed="2.56" angle="90.00" x="214.86" y="98.40"/>
        <vehicle id="car17.0" eclass="HBEFA3/PC_G_EU4" CO2="3820.87" CO="149.92" HC="0.77" NOx="1.70" PMx="0.08" fuel="1.64" electricity="0.00" noise="67.26" route="!car17.0!var#1" type="car" waiting="0.00" lane="-H1_0" pos="7.47" speed="2.37" angle="90.00" x="114.67" y="298.40"/>
        <vehicle id="car18.0" eclass="HBEFA3/PC_G_EU4" CO2="3907.57" CO="150.54" HC="0.78" NOx="1.74" PMx="0.09" fuel="1.68" electricity="0.00" noise="67.62" route="!car18.0!var#1" type="car" waiting="0.00" lane="A0_0" pos="7.54" speed="2.44" angle="0.00" x="1.60" y="10.74"/>
        <vehicle id="car19.0" eclass="HBEFA3/PC_G_EU4" CO2="3532.95" CO="148.26" HC="0.76" NOx="1.58" PMx="0.08" fuel="1.52" electricity="0.00" noise="65.97" route="!car19.0!var#1" type="car" waiting="0.00" lane="-G2_0" pos="7.20" speed="2.10" angle="90.00" x="14.40" y="198.40"/>
        <vehicle id="car2.0" eclass="HBEFA3/PC_G_EU4" CO2="3759.99" CO="149.52" HC="0.77" NOx="1.68" PMx="0.08" fuel="1.62" electricity="0.00" noise="67.00" route="!car2.0!var#1" type="car" waiting="0.00" lane="H1_0" pos="7.41" speed="2.31" angle="270.00" x="185.39" y="301.60"/>
        <vehicle id="car20.0" eclass="HBEFA3/PC_G_EU4" CO2="3538.64" CO="148.28" HC="0.76" NOx="1.58" PMx="0.08" fuel="1.52" electricity="0.00" noise="66.00" route="!car20.0!var#1" type="car" waiting="0.00" lane="B0_0" pos="7.20" speed="2.10" angle="0.00" x="101.60" y="14.40"/>
        <vehicle id="car21.0" eclass="HBEFA3/PC_G_EU4" CO2="3720.09" CO="149.27" HC="0.77" NOx="1.66" PMx="0.08" fuel="1.60" electricity="0.00" noise="66.83" route="!car21.0!var#1" type="car" waiting="0.00" lane="D0_0" pos="7.38" speed="2.28" angle="0.00" x="301.60" y="10.58"/>
        <vehicle id="car22.0" eclass="HBEFA3/PC_G_EU4" CO2="3556.34" CO="148.37" HC="0.76" NOx="1.59" PMx="0.08" fuel="1.53" electricity="0.00" noise="66.08" route="!car22.0!var#1" type="car" waiting="0.00" lane="-G1_0" pos="7.22" speed="2.12" angle="90.00" x="114.42" y="198.40"/>
        <vehicle id="car23.0" eclass="HBEFA3/PC_G_EU4" CO2="3804.19" CO="149.81" HC="0.77" NOx="1.70" PMx="0.08" fuel="1.64" electricity="0.00" noise="67.19" route="!car23.0!var#1" type="car" waiting="0.00" lane="-B0_0" pos="7.45" speed="2.35" angle="180.00" x="98.40" y="85.35"/>
        <vehicle id="car25.0" eclass="HBEFA3/PC_G_EU4" CO2="3929.42" CO="150.70" HC="0.78" NOx="1.75" PMx="0.09" fuel="1.69" electricity="0.00" noise="67.71" route="!car25.0!var#1" type="car" waiting="0.00" lane="G1_0" pos="7.56" speed="2.46" angle="270.00" x="185.24" y="201.60"/>
        <vehicle id="car27.0" eclass="HBEFA3/PC_G_EU4" CO2="3693.25" CO="149.11" HC="0.77" NOx="1.65" PMx="0.08" fuel="1.59" electricity="0.00" noise="66.71" route="!car27.0!var#1" type="car" waiting="0.00" lane="H0_0" pos="7.35" speed="2.25" angle="270.00" x="289.45" y="301.60"/>
        <vehicle id="car28.0" eclass="HBEFA3/PC_G_EU4" CO2="3929.55" CO="150.70" HC="0.78" NOx="1.75" PMx="0.09" fuel="1.69" electricity="0.00" noise="67.71" route="!car28.0!var#1" type="car" waiting="0.00" lane="-C1_0" pos="7.56" speed="2.46" angle="180.00" x="198.40" y="185.24"/>
        <vehicle id="car3.0" eclass="HBEFA3/PC_G_EU4" CO2="3614.89" CO="148.66" HC="0.76" NOx="1.61" PMx="0.08" fuel="1.55" electricity="0.00" noise="66.36" route="!car3" type="car" waiting="0.00" lane="G0_0" pos="7.28" speed="2.18" angle="270.00" x="285.52" y="201.60"/>
        <vehicle id="car30.0" eclass="HBEFA3/PC_G_EU4" CO2="3827.56" CO="149.97" HC="0.77" NOx="1.71" PMx="0.08" fuel="1.65" electricity="0.00" noise="67.29" route="!car30.0!var#1" type="car" waiting="0.00" lane="-E0_0" pos="7.47" speed="2.37" angle="90.00" x="214.67" y="-1.60"/>
        <vehicle id="car32.0" eclass="HBEFA3/PC_G_EU4" CO2="3869.18" CO="150.26" HC="0.78" NOx="1.73" PMx="0.09" fuel="1.66" electricity="0.00" noise="67.46" route="!car32.0!var#1" type="car" waiting="0.00" lane="-F1_0" pos="7.51" speed="2.41" angle="90.00" x="114.71" y="98.40"/>
        <vehicle id="car33.0" eclass="HBEFA3/PC_G_EU4" CO2="3990.91" CO="151.17" HC="0.78" NOx="1.78" PMx="0.09" fuel="1.72" electricity="0.00" noise="67.95" route="!car33.0!var#1" type="car" waiting="0.00" lane="-A2_0" pos="7.61" speed="2.51" angle="180.00" x="-1.60" y="289.19"/>
        <vehicle id="car35.0" eclass="HBEFA3/PC_G_EU4" CO2="3630.36" CO="148.75" HC="0.76" NOx="1.62" PMx="0.08" fuel="1.56" electricity="0.00" noise="66.43" route="!car35.0!var#1" type="car" waiting="0.00" lane="G2_0" pos="7.29" speed="2.19" angle="270.00" x="85.51" y="201.60"/>
        <vehicle id="car37.0" eclass="HBEFA3/PC_G_EU4" CO2="3708.83" CO="149.20" HC="0.77" NOx="1.65" PMx="0.08" fuel="1.59" electricity="0.00" noise="66.78" route="!car37.0!var#1" type="car" waiting="0.00" lane="D2_0" pos="7.37" speed="2.27" angle="0.00" x="301.60" y="214.57"/>
        <vehicle id="car4.0" eclass="HBEFA3/PC_G_EU4" CO2="3666.57" CO="148.95" HC="0.76" NOx="1.63" PMx="0.08" fuel="1.58" electricity="0.00" noise="66.59" route="!car4.0!var#1" type="car" waiting="0.00" lane="B1_0" pos="7.33" speed="2.23" angle="0.00" x="101.60" y="114.53"/>
        <vehicle id="car40.0" eclass="HBEFA3/PC_G_EU4" CO2="3909.43" CO="150.55" HC="0.78" NOx="1.74" PMx="0.09" fuel="1.68" electricity="0.00" noise="67.63" route="!car40.0!var#1" type="car" waiting="0.00" lane="-A1_0" pos="7.54" speed="2.44" angle="180.00" x="-1.60" y="185.26"/>
        <vehicle id="car45.0" eclass="HBEFA3/PC_G_EU4" CO2="3570.18" CO="148.43" HC="0.76" NOx="1.59" PMx="0.08" fuel="1.53" electricity="0.00" noise="66.15" route="!car45" type="car" waiting="0.00" lane="-E1_0" pos="7.23" speed="2.13" angle="90.00" x="114.43" y="-1.60"/>
        <vehicle id="car46.0" eclass="HBEFA3/PC_G_EU4" CO2="4063.47" CO="151.75" HC="0.79" NOx="1.81" PMx="0.09" fuel="1.75" electricity="0.00" noise="68.23" route="!car46.0!var#1" type="car" waiting="0.00" lane="C1_0" pos="7.67" speed="2.57" angle="0.00" x="201.60" y="114.87"/>
        <vehicle id="car48.0" eclass="HBEFA3/PC_G_EU4" CO2="4100.70" CO="152.06" HC="0.79" NOx="1.83" PMx="0.09" fuel="1.76" electricity="0.00" noise="68.38" route="!car48.0!var#1" type="car" waiting="0.00" lane="-D0_0" pos="7.70" speed="2.60" angle="180.00" x="298.40" y="85.10"/>
        <vehicle id="car5.0" eclass="HBEFA3/PC_G_EU4" CO2="4009.97" CO="151.32" HC="0.78" NOx="1.79" PMx="0.09" fuel="1.72" electricity="0.00" noise="68.03" route="!car5.0!var#1" type="car" waiting="0.00" lane="C0_0" pos="7.63" speed="2.53" angle="0.00" x="201.60" y="14.83"/>
        <vehicle id="car50.0" eclass="HBEFA3/PC_G_EU4" CO2="4055.74" CO="151.69" HC="0.79" NOx="1.81" PMx="0.09" fuel="1.74" electricity="0.00" noise="68.20" route="!car50" type="car" waiting="0.00" lane="B2_0" pos="7.66" speed="2.56" angle="0.00" x="101.60" y="214.86"/>
        <vehicle id="car51.0" eclass="HBEFA3/PC_G_EU4" CO2="3603.27" CO="148.60" HC="0.76" NOx="1.61" PMx="0.08" fuel="1.55" electricity="0.00" noise="66.30" route="!car51.0!var#1" type="car" waiting="0.00" lane="F1_0" pos="7.27" speed="2.17" angle="270.00" x="185.53" y="101.60"/>
        <vehicle id="car53.0" eclass="HBEFA3/PC_G_EU4" CO2="3973.75" CO="151.04" HC="0.78" NOx="1.77" PMx="0.09" fuel="1.71" electricity="0.00" noise="67.88" route="!car53.0!var#1" type="car" waiting="0.00" lane="-D2_0" pos="7.60" speed="2.50" angle="180.00" x="298.40" y="289.20"/>
        <vehicle id="car57.0" eclass="HBEFA3/PC_G_EU4" CO2="3524.02" CO="148.21" HC="0.76" NOx="1.57" PMx="0.08" fuel="1.51" electricity="0.00" noise="65.93" route="!car57.0!var#1" type="car" waiting="0.00" lane="-B1_0" pos="7.19" speed="2.09" angle="180.00" x="98.40" y="185.61"/>
        <vehicle id="car59.0" eclass="HBEFA3/PC_G_EU4" CO2="3851.44" CO="150.13" HC="0.77" NOx="1.72" PMx="0.09" fuel="1.66" electricity="0.00" noise="67.39" route="!car59" type="car" waiting="0.00" lane="F0_0" pos="7.49" speed="2.39" angle="270.00" x="285.31" y="101.60"/>
        <vehicle id="car6.0" eclass="HBEFA3/PC_G_EU4" CO2="3997.66" CO="151.22" HC="0.78" NOx="1.78" PMx="0.09" fuel="1.72" electricity="0.00" noise="67.98" route="!car6.0!var#1" type="car" waiting="0.00" lane="D1_0" pos="7.62" speed="2.52" angle="0.00" x="301.60" y="114.82"/>
        <vehicle id="car62.0" eclass="HBEFA3/PC_G_EU4" CO2="3810.98" CO="149.86" HC="0.77" NOx="1.70" PMx="0.08" fuel="1.64" electricity="0.00" noise="67.22" route="!car62.0!var#1" type="car" waiting="0.00" lane="E0_0" pos="7.46" speed="2.36" angle="270.00" x="289.34" y="1.60"/>
        <vehicle id="car65.0" eclass="HBEFA3/PC_G_EU4" CO2="3518.38" CO="148.19" HC="0.76" NOx="1.57" PMx="0.08" fuel="1.51" electricity="0.00" noise="65.90" route="!car65.0!var#1" type="car" waiting="0.00" lane="E1_0" pos="7.18" speed="2.08" angle="270.00" x="185.62" y="1.60"/>
        <vehicle id="car7.0" eclass="HBEFA3/PC_G_EU4" CO2="3547.44" CO="148.32" HC="0.76" NOx="1.58" PMx="0.08" fuel="1.52" electricity="0.00" noise="66.04" route="!car7.0!var#1" type="car" waiting="0.00" lane="A1_0" pos="7.21" speed="2.11" angle="0.00" x="1.60" y="114.41"/>
        <vehicle id="car73.0" eclass="HBEFA3/PC_G_EU4" CO2="3898.13" CO="150.47" HC="0.78" NOx="1.74" PMx="0.09" fuel="1.68" electricity="0.00" noise="67.58" route="!car73.0!var#1" type="car" waiting="0.00" lane="F2_0" pos="7.53" speed="2.43" angle="270.00" x="85.27" y="101.60"/>
        <vehicle id="car77.0" eclass="HBEFA3/PC_G_EU4" CO2="3823.26" CO="149.94" HC="0.77" NOx="1.70" PMx="0.08" fuel="1.64" electricity="0.00" noise="67.27" route="!car77.0!var#1" type="car" waiting="0.00" lane="-E2_0" pos="7.47" speed="2.37" angle="90.00" x="10.67" y="-1.60"/>
        <vehicle id="car8.0" eclass="HBEFA3/PC_G_EU4" CO2="3573.37" CO="148.45" HC="0.76" NOx="1.59" PMx="0.08" fuel="1.54" electricity="0.00" noise="66.16" route="!car8.0!var#1" type="car" waiting="0.00" lane="-C2_0" pos="7.24" speed="2.14" angle="180.00" x="198.40" y="285.56"/>
        <vehicle id="car9.0" eclass="HBEFA3/PC_G_EU4" CO2="4035.30" CO="151.52" HC="0.79" NOx="1.80" PMx="0.09" fuel="1.73" electricity="0.00" noise="68.13" route="!car9.0!var#1" type="car" waiting="0.00" lane="H2_0" pos="7.65" speed="2.55" angle="270.00" x="85.15" y="301.60"/>
        <vehicle id="car96.0" eclass="HBEFA3/PC_G_EU4" CO2="3704.72" CO="149.17" HC="0.77" NOx="1.65" PMx="0.08" fuel="1.59" electricity="0.00" noise="66.76" route="!car96" type="car" waiting="0.00" lane="-C0_0" pos="7.36" speed="2.26" angle="180.00" x="198.40" y="85.44"/>
        <vehicle id="car98.0" eclass="HBEFA3/PC_G_EU4" CO2="3914.14" CO="150.59" HC="0.78" NOx="1.75" PMx="0.09" fuel="1.68" electricity="0.00" noise="67.65" route="!car98" type="car" waiting="0.00" lane="C2_0" pos="7.55" speed="2.45" angle="0.00" x="201.60" y="214.75"/>
        <vehicle id="car99.0" eclass="HBEFA3/PC_G_EU4" CO2="3687.71" CO="149.07" HC="0.77" NOx="1.64" PMx="0.08" fuel="1.59" electricity="0.00" noise="66.69" route="!car99.0!var#1" type="car" waiting="0.00" lane="-H0_0" pos="7.35" speed="2.25" angle="90.00" x="214.55" y="298.40"/>
    </timestep>
    <timestep time="2.00">
        <vehicle id="car0.0" eclass="HBEFA3/PC_G_EU4" CO2="4736.61" CO="137.01" HC="0.74" NOx="2.08" PMx="0.10" fuel="2.04" electricity="0.00" noise="67.24" route="!car0" type="car" waiting="0.00" lane="-G0_0" pos="11.97" speed="4.51" angle="90.00" x="219.17" y="198.40"/>
        <vehicle id="car1.0" eclass="HBEFA3/PC_G_EU4" CO2="5317.60" CO="142.51" HC="0.77" NOx="2.34" PMx="0.11" fuel="2.29" electricity="0.00" noise="68.59" route="!car1.0!var#1" type="car" waiting="0.00" lane="-F2_0" pos="12.65" speed="4.98" angle="90.00" x="19.85" y="98.40"/>
        <vehicle id="car10.0" eclass="HBEFA3/PC_G_EU4" CO2="4969.33" CO="140.82" HC="0.76" NOx="2.19" PMx="0.10" fuel="2.14" electricity="0.00" noise="67.99" route="!car10.0!var#1" type="car" waiting="0.00" lane="-D1_0" pos="11.94" speed="4.58" angle="180.00" x="298.40" y="180.86"/>
        <vehicle id="car11.0" eclass="HBEFA3/PC_G_EU4" CO2="4748.03" CO="138.84" HC="0.74" NOx="2.09" PMx="0.10" fuel="2.04" electricity="0.00" noise="67.45" route="!car11.0!var#1" type="car" waiting="0.00" lane="-B2_0" pos="11.68" speed="4.40" angle="180.00" x="98.40" y="281.12"/>
        <vehicle id="car12.0" eclass="HBEFA3/PC_G_EU4" CO2="5510.15" CO="145.79" HC="0.79" NOx="2.43" PMx="0.12" fuel="2.37" electricity="0.00" noise="69.15" route="!car12.0!var#1" type="car" waiting="0.00" lane="A2_0" pos="12.62" speed="5.03" angle="0.00" x="1.60" y="219.82"/>
        <vehicle id="car13.0" eclass="HBEFA3/PC_G_EU4" CO2="4761.05" CO="138.69" HC="0.74" NOx="2.09" PMx="0.10" fuel="2.05" electricity="0.00" noise="67.45" route="!car13.0!var#1" type="car" waiting="0.00" lane="E2_0" pos="11.74" speed="4.43" angle="270.00" x="81.06" y="1.60"/>
        <vehicle id="car15.0" eclass="HBEFA3/PC_G_EU4" CO2="5101.26" CO="139.70" HC="0.76" NOx="2.24" PMx="0.11" fuel="2.19" electricity="0.00" noise="68.03" route="!car15.0!var#1" type="car" waiting="0.00" lane="-F0_0" pos="12.52" speed="4.86" angle="90.00" x="219.72" y="98.40"/>
        <vehicle id="car17.0" eclass="HBEFA3/PC_G_EU4" CO2="4968.61" CO="139.80" HC="0.75" NOx="2.18" PMx="0.10" fuel="2.14" electricity="0.00" noise="67.87" route="!car17.0!var#1" type="car" waiting="0.00" lane="-H1_0" pos="12.12" speed="4.66" angle="90.00" x="119.32" y="298.40"/>
        <vehicle id="car18.0" eclass="HBEFA3/PC_G_EU4" CO2="5145.89" CO="141.38" HC="0.77" NOx="2.26" PMx="0.11" fuel="2.21" electricity="0.00" noise="68.27" route="!car18.0!var#1" type="car" waiting="0.00" lane="A0_0" pos="12.35" speed="4.81" angle="0.00" x="1.60" y="15.55"/>
        <vehicle id="car19.0" eclass="HBEFA3/PC_G_EU4" CO2="4984.60" CO="142.56" HC="0.77" NOx="2.20" PMx="0.11" fuel="2.14" electricity="0.00" noise="68.21" route="!car19.0!var#1" type="car" waiting="0.00" lane="-G2_0" pos="11.68" speed="4.48" angle="90.00" x="18.88" y="198.40"/>
        <vehicle id="car2.0" eclass="HBEFA3/PC_G_EU4" CO2="5022.36" CO="141.00" HC="0.76" NOx="2.21" PMx="0.11" fuel="2.16" electricity="0.00" noise="68.08" route="!car2.0!var#1" type="car" waiting="0.00" lane="H1_0" pos="12.06" speed="4.65" angle="270.00" x="180.74" y="301.60"/>
        <vehicle id="car20.0" eclass="HBEFA3/PC_G_EU4" CO2="4618.18" CO="138.04" HC="0.74" NOx="2.03" PMx="0.10" fuel="1.99" electricity="0.00" noise="67.15" route="!car20.0!var#1" type="car" waiting="0.00" lane="B0_0" pos="11.47" speed="4.26" angle="0.00" x="101.60" y="18.67"/>